73
energy=-1373525.4976925924 Lattice="15.927209 0.000000 0.000000 -7.963416 13.793478 0.000000 0.000000 0.000000 13.223810" Properties=species:S:1:pos:R:3:forces:R:3 pbc="T T T"
Mo -0.1333991328 1.9533212998 3.2758533191 -1.04 0.615 0.731
S 1.5285067905 1.0202814458 4.8525124784 0.68 -0.754 -0.414
S 1.4636037513 1.0087301502 1.715341544 2.189 0.445 -0.36
Mo -1.6678662851 4.7372726576 3.2862104979 -1.058 0.094 0.904
S 0.0195337927 3.8828933309 4.7556368991 -0.606 1.693 -1.297
S -0.1161290914 3.8697905649 1.7342216247 0.307 -2.034 0.369
Mo -3.2335190464 7.3501785143 3.488188909 0.647 -0.465 -1.413
S -1.3852639718 6.5499853348 4.7468810199 1.683 1.276 -0.237
S -1.6781959866 6.495399427 1.6658069614 -0.699 1.558 -0.01
Mo -4.7369968844 10.2128162455 3.4877702637 -0.613 -2.121 1.001
S -3.1735754194 9.1315098511 5.1223648513 0.324 2.365 0.561
S -3.2276983555 9.2333499764 1.8813231522 0.403 -0.686 1.642
Mo -6.4075152255 12.9476936262 3.3787262649 0.777 0.979 -0.066
S -4.9039984205 12.1001537882 5.0139066719 -0.138 -1.059 -0.205
S -4.7566006655 12.1009673495 1.8869827387 1.735 -0.521 -0.9
Mo 3.1183238099 1.892914106 3.2730666541 -0.593 0.131 -0.074
S 4.8965212184 1.0824168306 4.9137332541 1.141 -0.069 -0.242
S 4.7573804353 0.7836704694 1.9378014689 1.824 -0.144 1.706
Mo 1.7088648924 4.7132696558 3.0799670754 0.483 -1.325 0.339
S 3.0869642595 3.7208663932 4.8176317384 -0.115 0.214 0.233
S 3.1376299765 3.5667362462 1.5192162224 1.866 0.038 -0.025
Mo 0.0415790818 7.4233156915 3.0914842643 0.915 0.497 0.552
S 1.562542269 6.5637823836 1.5606082336 0.745 0.491 -1.274
Mo -1.5943779997 10.1304680837 3.5020794846 0.97 0.228 -1.2
S 0.2785641989 8.9135350127 4.8721049146 -0.163 -1.964 -0.242
S -0.1170841663 9.2577852548 1.7811021698 0.76 1.078 -1.392
Mo -3.1285001405 12.9041370046 3.5332091317 1.153 -0.734 0.584
S -1.4684470258 11.8910163286 5.0338132533 -0.175 0.384 1.074
S -1.4766675448 11.9433562466 1.9012356839 -1.059 -0.956 -1.423
Mo 6.3300896152 1.9258306333 3.3223384486 -1.579 -0.713 1.611
S 7.9040969055 0.9616371369 4.8324983249 1.931 -1.174 -0.336
S 7.8056752888 0.9030841213 1.7643963954 0.451 -0.118 -0.384
Mo 4.7023921531 4.5043900218 3.3150323117 1.147 0.135 -0.661
S 6.2129441647 3.5956395715 4.9886460163 -0.58 0.116 -0.214
S 6.2803732409 3.6645513818 1.7050957735 -0.255 0.148 -0.904
Mo 3.09127298 7.4053664366 3.3777784038 -0.471 1.362 1.092
S 4.8077357838 6.3999479241 1.972439508 1.176 0.035 0.034
Mo 1.668056208 10.0309789552 3.2998917238 -0.813 -0.306 0.644
H 1.7252932921 6.2105906645 4.3232212327 -2.215 0.637 -0.987
S 3.1900102619 9.0055790391 1.6929577513 1.382 0.03 -2.006
Mo 0.0384045621 12.8617154182 3.4287510338 0.129 1.34 -2.417
S 1.8184590604 11.8261884182 4.9010577817 0.679 1.205 0.032
S 1.5433966337 11.9814685332 1.755371558 0.965 0.29 1.209
Mo 9.5498875245 1.6828104313 3.1720948395 -0.59 0.227 -2.219
S 11.1781826104 0.8263151753 4.8064925787 -0.5 0.358 0.027
S 11.2291915551 0.7388580367 1.6150402864 -1.747 1.046 1.204
Mo 7.9318418851 4.4854044244 3.2613883225 0.513 1.266 -1.508
S 9.4811529461 3.4293108055 4.7354640294 0.797 -0.574 0.236
S 9.3756051115 3.6352001585 1.560583123 -0.248 0.407 0.309
Mo 6.609839992 7.3704033045 3.2268911531 1.137 0.118 -0.542
S 7.8761530707 6.3265806944 5.0341316657 0.452 -0.368 -1.015
S 8.0297719366 6.2334651094 1.84084215 -1.084 0.594 -0.943
Mo 4.8742094548 9.952542385 3.1335567112 0.6 -0.009 1.927
S 6.172970763 9.2098022845 4.814889102 0.775 -0.857 0.627
S 6.5459607158 9.2411039839 1.7247512051 1.221 -0.422 -1.357
Mo 3.2692822707 12.7415433788 3.1325095021 0.372 1.56 -0.844
S 4.9258063288 11.8681528172 4.7820724165 0.482 -0.009 0.641
S 4.8955230097 12.0770136173 1.620752871 -0.023 -0.258 -0.265
Mo 12.7057654739 1.6921163452 3.264171226 -0.681 -1.27 1.029
S 14.3247742334 1.0585405137 4.8808078067 -0.635 -0.279 -0.756
S 14.4181104058 1.1351736568 1.5321246935 -0.59 -0.237 -1.691
Mo 11.0010700346 4.5514760834 3.3413758863 0.831 1.134 0.76
S 12.6639384903 3.5875141252 4.8271569395 0.066 0.157 0.27
S 12.7378949607 3.5944016529 1.7653890766 0.119 -0.406 0.596
Mo 9.5457379932 7.2431010342 3.497583632 0.652 -1.004 0.013
S 11.0173336352 6.2509091443 5.022614903 1.239 0.456 0.727
S 11.1787434822 6.4511215714 1.884835519 0.358 -1.182 1.445
Mo 7.9435693866 10.2078428556 3.3377058186 0.238 1.087 -0.953
S 9.5890311573 9.3098333053 4.9422413666 2.073 -0.593 -1.147
S 9.5633705098 9.0887906302 1.9376866809 -1.257 -1.08 -0.019
Mo 6.5174563252 13.0602679353 3.2282820955 0.577 0.915 0.121
S 7.9008763931 12.1791558792 4.9014232226 1.282 -0.554 -0.083
S 7.9517538628 11.9616916251 1.6893777746 -0.398 -1.031 -0.592
73
energy=-1373524.050679475 Lattice="15.927209 0.000000 0.000000 -7.963416 13.793478 0.000000 0.000000 0.000000 13.223810" Properties=species:S:1:pos:R:3:forces:R:3 pbc="T T T"
Mo -0.1413498143 1.996707938 3.2565975897 -1.268 0.462 -0.19
S 1.3334748084 1.0397910542 4.7775755344 0.283 0.528 1.508
S 1.5413714119 0.943413398 1.8165181293 -0.711 -1.162 0.77
Mo -1.6685550439 4.6858321415 3.2907955352 1.977 -0.775 0.051
S 0.0317293531 3.9481918205 4.89402748 -1.572 0.012 0.667
S -0.0537978623 3.7783067416 1.6022288925 -0.633 1.509 -0.772
Mo -3.1858246301 7.3595135898 3.5438039673 -1.235 1.619 0.885
S -1.3390331747 6.574755412 4.8532195921 0.141 -0.55 0.268
S -1.7167840928 6.561709948 1.8021386256 0.389 -0.655 -1.042
Mo -4.6758729045 10.1737438343 3.4096566781 0.764 0.322 -1.061
S -3.2656298772 9.078194227 5.1386499225 -0.744 -0.134 -2.057
S -3.3201760006 9.0633632348 1.9035533253 -0.105 0.61 -0.805
Mo -6.3893434597 12.9506054232 3.3370872532 -0.258 -2.0 1.136
S -4.7407018979 12.076793251 4.9655287148 -0.781 -0.36 0.417
S -4.7177128183 12.0704135134 1.8601104568 0.059 0.087 -0.819
Mo 3.1261101894 1.768879282 3.2244259259 1.511 0.524 1.571
S 4.7782824246 0.9809477107 4.943913244 2.537 0.109 0.583
S 4.8601520584 0.8607944424 1.839132638 0.812 0.094 -0.237
Mo 1.7080233802 4.707877536 3.2015911782 0.764 -1.094 -0.294
S 3.070811612 3.7936080522 4.8041008061 -0.525 1.008 -1.475
S 3.2148730229 3.5408557851 1.5534796306 -0.349 -0.035 2.275
Mo 0.0533166595 7.4345791747 3.127283702 1.681 0.436 -0.284
S 1.6759168714 6.5103410067 1.7518024208 -0.081 1.895 0.132
Mo -1.5773518869 10.0920602909 3.3774790386 0.294 0.87 0.18
S 0.2366510974 9.0583641501 4.7277204772 0.638 -0.132 -0.489
S -0.0370297045 9.2356559915 1.6810389311 -0.479 -0.014 1.444
Mo -3.0763909877 12.8989155546 3.5278901104 -1.036 0.188 -0.566
S -1.5038636521 11.9255195434 5.0586675648 0.692 1.215 -0.293
S -1.6255005316 12.0624079635 1.919641375 1.153 -0.314 -0.049
Mo 6.3668577845 1.9177280325 3.3550858683 -0.994 1.555 0.663
S 8.0249851785 1.0351967255 4.8513129169 -1.837 -0.338 -0.427
S 7.7749013271 0.8381394243 1.6779704423 3.134 -0.506 -0.549
Mo 4.6589071337 4.5155091305 3.3095516869 -0.318 0.249 1.048
S 6.2884143242 3.7323997119 4.9861487303 0.259 1.377 0.698
S 6.3140225804 3.7875490244 1.7107054414 -0.382 -0.904 -1.491
Mo 3.2146006277 7.2902464071 3.4205845945 0.145 -1.527 0.526
S 4.7881407991 6.4923576151 1.9460449779 0.428 0.525 -0.859
Mo 1.6765794437 10.0662060305 3.3229687066 0.094 -0.013 0.885
H 1.6001196207 6.2623206569 4.206775327 -0.002 0.346 0.723
S 3.2290650386 9.0314269791 1.8651424085 -1.454 -1.004 -0.074
Mo 0.0914568232 12.857801318 3.3568859407 -0.929 0.754 -0.487
S 1.7787448925 11.8206445323 4.8861891901 0.917 -0.184 -0.511
S 1.6244768153 11.8521353922 1.7333626019 0.149 -0.156 -0.965
Mo 9.4576413054 1.7600371425 3.1747180518 -1.358 -0.616 0.838
S 11.1504345482 0.7776590289 4.7181050279 -0.561 -0.419 0.749
S 11.1536766805 0.8757373999 1.6303525196 0.121 1.232 0.19
Mo 7.8192290884 4.4934124297 3.3804905852 -0.258 0.693 0.186
S 9.5311839444 3.5120123433 4.7773007689 -0.527 1.396 0.671
S 9.3227619935 3.5263743618 1.684769316 -0.572 -0.206 1.781
Mo 6.4239346421 7.4417247326 3.2792667405 0.031 -1.312 -0.886
S 7.8013995898 6.4449381403 4.9684258316 2.06 -1.001 1.841
S 8.1720340959 6.309571941 1.8144638244 -1.099 -1.534 1.567
Mo 4.797659222 9.9442556421 3.1119784701 -0.685 -0.222 -0.851
S 6.3651467933 9.1011172552 4.871812513 0.522 0.948 0.157
S 6.5759920516 9.1550407811 1.6184683476 0.09 -0.168 -1.541
Mo 3.26392876 12.8201713072 3.1787101908 -0.422 0.32 -0.979
S 4.8015888538 11.931216967 4.7095176596 -1.131 -0.017 -0.85
S 4.9054373936 11.9254516754 1.6325539749 -0.352 1.496 -1.123
Mo 12.7519937234 1.7049161686 3.1858622433 -1.393 -0.289 1.336
S 14.2806511233 1.0352249773 4.8444045135 -1.248 -1.582 -0.225
S 14.3236870742 1.064879898 1.6556313522 0.441 0.011 2.064
Mo 11.0340787537 4.5393560141 3.3188013894 -1.514 -0.542 -0.027
S 12.7683629411 3.6115449327 4.793219336 -1.124 1.516 2.737
S 12.587645208 3.6177961466 1.7808974705 1.642 0.579 0.157
Mo 9.60806179 7.2271504244 3.4704541969 -0.147 -0.913 -1.806
S 11.1185763124 6.2220968931 4.9506579041 -1.689 -0.44 0.396
S 11.1465217972 6.4741880309 1.8706494734 -0.765 1.444 -1.203
Mo 7.9840042163 10.146309425 3.3174679803 -1.652 -0.052 0.487
S 9.4946795904 9.297501504 4.8898543658 -1.131 -0.701 -1.21
S 9.5291671835 8.9698319872 1.891864857 -0.578 -0.22 0.501
Mo 6.3765613892 13.0796697126 3.2395533216 0.538 0.315 2.099
S 7.924437226 12.2891944244 4.9083292288 0.818 -0.574 0.188
S 7.9927279337 12.1422031614 1.765848372 1.514 0.355 1.251
73
energy=-1373520.8512870164 Lattice="15.927209 0.000000 0.000000 -7.963416 13.793478 0.000000 0.000000 0.000000 13.223810" Properties=species:S:1:pos:R:3:forces:R:3 pbc="T T T"
Mo -0.134451044 2.0110070615 3.2515902343 -0.576 -0.572 1.906
S 1.3206584204 1.0518696432 4.775010089 0.336 -2.134 0.747
S 1.5475793276 0.9262160557 1.8187589066 0.772 -0.591 -0.895
Mo -1.6610119253 4.6719885189 3.2903448449 0.059 0.052 0.605
S 0.0346877401 3.9530924431 4.894767206 -1.274 -0.663 -0.265
S -0.0394332837 3.7659836887 1.5952341387 -0.059 0.168 -1.539
Mo -3.1776793998 7.3596861463 3.5448395495 1.386 -0.367 0.165
S -1.3477570835 6.5586019523 4.8936617932 1.116 0.99 0.064
S -1.7313206823 6.5688131343 1.8307159968 -0.474 1.07 -0.75
Mo -4.6765592913 10.1594420421 3.3936138738 -0.12 -0.731 1.371
S -3.2726344589 9.094095552 5.1218423179 1.756 -1.101 0.935
S -3.3152505637 9.0446968739 1.9156609458 0.505 2.264 0.241
Mo -6.3836081146 12.9528945668 3.3257437002 -0.108 -1.968 0.446
S -4.7072168502 12.0615823485 4.9603483899 -1.376 0.701 1.441
S -4.6981070385 12.0440109082 1.8622620281 1.053 1.292 -0.047
Mo 3.1322970172 1.7518258758 3.2248796465 -0.967 0.328 1.0
S 4.736432565 0.9629856023 4.9561473612 0.02 0.465 -0.789
S 4.8744499712 0.8856854815 1.8101908008 -0.658 -0.406 0.474
Mo 1.7007981383 4.6918791294 3.2252478024 0.841 -1.339 -2.106
S 3.0681992673 3.7964957271 4.823391857 -2.374 -0.025 -0.015
S 3.2305648296 3.5530817487 1.5955959944 -0.475 0.702 1.588
Mo 0.0542833558 7.4295952733 3.1358114917 -0.863 -0.057 1.246
S 1.7291126103 6.5051140524 1.7667070257 1.066 1.677 -0.657
Mo -1.5764598007 10.0806822865 3.3496268722 0.496 1.563 -1.129
S 0.211463772 9.1071482716 4.7516702641 -0.52 0.562 -0.485
S -0.0123814659 9.2591656432 1.6560693028 -0.46 0.408 0.23
Mo -3.0718784255 12.8980906036 3.5185755667 -0.875 0.312 0.603
S -1.501105305 11.9339870693 5.0534152168 -0.292 0.936 -1.04
S -1.6559949633 12.0588871834 1.9221216896 -0.929 0.959 -0.225
Mo 6.3728023204 1.9106770616 3.3582523022 0.592 1.0 -0.632
S 8.0499985501 1.0272260232 4.863940493 0.361 1.444 -0.604
S 7.789336723 0.8223593048 1.670301823 0.939 1.438 -0.121
Mo 4.6548643345 4.5225915615 3.2984984457 1.206 -0.852 0.119
S 6.2979718086 3.773572013 4.9735497066 -0.948 0.101 0.938
S 6.3140645641 3.7975926722 1.7224653416 -2.267 -1.246 0.251
Mo 3.2388072283 7.2638754596 3.4322066353 -1.821 -0.073 1.294
S 4.7753046578 6.5050063565 1.9158110003 -0.06 0.527 2.375
Mo 1.679198037 10.0718610447 3.3103186467 0.828 0.999 -2.212
H 1.5325735511 6.3790039987 4.3670827774 -1.213 0.685 0.223
S 3.2134853376 9.0341267262 1.8695485108 -1.796 -0.324 0.767
Mo 0.0987310743 12.8568421627 3.3441707588 -0.803 1.065 0.288
S 1.7677730846 11.8309773392 4.8744514161 0.564 0.753 -0.584
S 1.6387767277 11.822342696 1.7266845086 1.295 -1.416 0.744
Mo 9.446754551 1.7757993033 3.1751016021 0.027 1.832 -0.807
S 11.133728487 0.7710503739 4.6983843659 1.152 0.924 -0.055
S 11.1226556519 0.9044870213 1.6262180924 0.548 -0.41 -1.068
Mo 7.8001533996 4.5028209878 3.4115764835 -0.015 -1.645 1.781
S 9.5320054035 3.5382151086 4.8065327236 -0.265 0.325 0.815
S 9.3337894854 3.5180362555 1.7260194047 0.535 -0.546 0.719
Mo 6.3820252306 7.452659552 3.2900703041 0.66 -0.183 0.864
S 7.7921631036 6.4594253499 4.938137691 -2.062 0.396 1.195
S 8.1834126593 6.3466695912 1.8055605581 -0.405 1.14 1.666
Mo 4.7988813758 9.9576628961 3.1201370466 0.642 1.53 0.976
S 6.3983624901 9.0908308842 4.8870045676 1.08 -0.934 -1.546
S 6.5661410426 9.1354214179 1.5954087612 0.472 -0.173 1.082
Mo 3.2560155622 12.8358955033 3.1969791989 0.098 -0.417 -1.675
S 4.7780272355 11.9307969182 4.6809015265 -0.116 -0.066 -0.283
S 4.9076453694 11.8802251013 1.6380917574 0.61 -0.353 2.373
Mo 12.7566816128 1.7280476095 3.1759319291 0.734 0.331 1.041
S 14.26919852 1.025128696 4.8425877533 -0.6 1.083 -0.872
S 14.3059344211 1.0304200194 1.6705446661 0.117 -0.332 -0.558
Mo 11.0491871334 4.5298566827 3.3035249753 0.542 0.477 -2.025
S 12.777657223 3.6150249091 4.7820581173 -1.771 0.63 -0.354
S 12.5562614672 3.6419544046 1.7782899673 -0.691 0.981 1.068
Mo 9.6122250543 7.2304226918 3.4652963631 -0.445 -1.336 0.77
S 11.1557506084 6.228288782 4.9610130298 -0.921 -0.665 -1.189
S 11.142656652 6.4677089573 1.8702093472 -0.534 -0.544 0.322
Mo 7.9900205532 10.1402774417 3.3144168641 -0.373 1.179 0.476
S 9.4813016717 9.2792283152 4.8859759153 -1.172 -0.271 1.71
S 9.5413494945 8.9834920698 1.8821934335 -0.217 -1.14 0.878
Mo 6.3432280955 13.0706531411 3.2418909683 2.195 0.687 -0.721
S 7.9240840157 12.269170974 4.9081076987 0.233 0.783 1.057
S 8.0121351599 12.1609004481 1.7857400105 0.635 1.956 -1.62
73
energy=-1373534.1725920073 Lattice="15.927209 0.000000 0.000000 -7.963416 13.793478 0.000000 0.000000 0.000000 13.223810" Properties=species:S:1:pos:R:3:forces:R:3 pbc="T T T"
Mo -0.109268156 2.0433612771 3.236020057 1.2 -0.181 1.614
S 1.3601629362 1.0793308878 4.7981644381 -1.0 -0.655 -0.068
S 1.5373896993 0.9000720797 1.7602433966 -0.753 -0.792 -0.031
Mo -1.6260132547 4.6399755844 3.2850283142 -0.05 -0.955 -0.329
S 0.0376263019 3.9336016132 4.8480270474 1.807 0.666 -0.11
S -0.0060154402 3.7617618622 1.6204391627 1.043 -0.229 -0.678
Mo -3.1633206121 7.3497403153 3.5391086147 -0.351 0.4 1.459
S -1.3961934434 6.4879150773 4.9884859804 -0.779 1.018 3.066
S -1.748589702 6.5594119397 1.8781693608 1.266 1.022 -1.075
Mo -4.7096418528 10.1103660273 3.3647419777 -0.955 1.665 -1.307
S -3.2546891742 9.1850523921 5.0425030759 0.45 -0.086 1.744
S -3.247279205 9.0372709255 1.9167074951 -1.915 -0.357 -0.915
Mo -6.3581206051 12.9567172612 3.3143992503 0.663 1.534 0.423
S -4.6532781512 11.9976672657 4.9508214487 0.578 -0.266 1.041
S -4.6381108077 11.9576659518 1.8708771102 1.862 -0.019 -0.027
Mo 3.157296721 1.7326352425 3.2500513129 0.939 -0.317 -0.923
S 4.6388407735 0.942457866 4.9776426603 0.802 -0.464 -1.073
S 4.8910397846 0.9450448987 1.7507064394 0.893 0.26 -0.037
Mo 1.6697030706 4.6344438993 3.2770754182 -0.159 1.355 0.314
S 3.087600028 3.7742315483 4.9115955267 -0.52 0.932 -1.1
S 3.2489728576 3.6023806762 1.7472987077 -0.582 0.243 0.1
Mo 0.0613503 7.4154831379 3.1722333529 0.489 -1.947 1.136
S 1.8750852755 6.4967191952 1.7728015983 1.444 1.388 1.111
Mo -1.5791580364 10.0549288271 3.286146964 -1.035 0.16 -1.718
S 0.1149181021 9.2316634711 4.8624660632 -1.268 -0.348 0.578
S 0.056231127 9.3293227016 1.6099937248 -1.651 -0.137 -0.159
Mo -3.0774426118 12.9056885233 3.4801000279 0.645 0.866 0.19
S -1.47062661 11.9451349045 4.9971128197 -0.174 0.718 -0.539
S -1.6848430357 11.9875986292 1.8946139513 -0.069 -1.728 -0.313
Mo 6.3809067355 1.8841662583 3.366784732 -1.747 -1.328 -0.491
S 8.0817350413 0.9577696314 4.9025411207 -0.915 0.427 0.301
S 7.8602555198 0.7954816813 1.679555014 -1.975 -0.904 2.14
Mo 4.6533702522 4.5572650795 3.2600293217 0.662 -2.407 0.758
S 6.2653684933 3.8528259488 4.9537283757 -0.452 0.494 -2.104
S 6.3101726147 3.7832603558 1.7722273643 -0.836 -0.83 -1.228
Mo 3.2948025799 7.1989142025 3.4741890133 0.115 -0.254 1.119
S 4.7389969783 6.5018052785 1.7956885838 -0.373 0.792 0.362
Mo 1.6813734864 10.0796323196 3.2584307107 -0.708 1.454 0.931
H 1.5480947955 6.6659320743 4.0412192955 -0.961 0.898 0.001
S 3.1503567006 9.0130754137 1.8289606386 -1.668 1.441 -1.392
Mo 0.1046289469 12.8513456937 3.3161751468 1.313 -1.788 0.984
S 1.7372451067 11.8817745571 4.836757544 0.063 0.128 1.583
S 1.6707247553 11.7830490369 1.7038033154 -0.21 -0.63 -0.943
Mo 9.4390935445 1.8039404218 3.1916681322 1.103 0.772 -0.471
S 11.0869968427 0.8148317693 4.6743050395 -0.168 -1.105 -1.499
S 11.0346480843 0.9612378975 1.6076178562 -0.312 0.127 -0.498
Mo 7.7825244554 4.5566080171 3.4761892453 0.528 -0.788 0.404
S 9.5189947625 3.6114961829 4.9001246225 0.206 1.675 -0.946
S 9.3781496903 3.5792202731 1.8195865288 0.42 0.946 0.341
Mo 6.2772533024 7.4721443266 3.299116894 0.499 2.423 -1.077
S 7.7829169701 6.4743496358 4.8595174833 -0.486 -2.113 -0.278
S 8.144084528 6.4406429898 1.8035096002 -0.506 -0.548 -1.121
Mo 4.8402674464 10.0105271227 3.1658980607 -0.106 -0.44 -0.563
S 6.4389920546 9.1221733734 4.9332252208 0.328 0.26 -1.203
S 6.5110907091 9.0967233863 1.5749511562 0.92 -1.265 -0.258
Mo 3.2170004101 12.8613109134 3.2265640215 -0.489 -0.21 -0.403
S 4.7355808044 11.888897102 4.6373255789 1.718 0.588 0.191
S 4.890294631 11.7765645492 1.6513555452 -0.94 0.185 -0.834
Mo 12.7414377917 1.822424807 3.170234413 0.568 -1.453 0.003
S 14.2396385283 1.0034582118 4.8438189175 -1.821 0.781 0.308
S 14.2852353416 0.9322187147 1.6566043626 1.077 0.296 0.025
Mo 11.0906475526 4.5032507152 3.2688362404 -1.71 -0.231 1.476
S 12.7705544081 3.6111112584 4.7574677882 0.244 -1.348 0.779
S 12.5296259585 3.71912285 1.7229430327 0.341 0.479 -0.607
Mo 9.6104329356 7.2546782339 3.4564716588 -0.32 -0.419 0.506
S 11.2507660015 6.259302771 5.0138519032 1.196 0.003 -0.663
S 11.1524538638 6.4297658955 1.8703976362 -0.395 -1.191 -0.582
Mo 7.9948876045 10.1367940296 3.3005746248 0.808 -0.826 1.275
S 9.4866183213 9.211077561 4.8896975351 0.309 0.77 0.623
S 9.606246845 9.0833871313 1.8577592894 3.353 1.295 0.516
Mo 6.2687438425 13.0143612596 3.2514387017 -1.034 0.332 1.156
S 7.9111761779 12.1447140141 4.8857172326 1.945 1.32 -1.295
S 8.0431349699 12.1463211445 1.81929212 0.956 0.525 -0.234
73
energy=-1373547.4673027322 Lattice="15.927209 0.000000 0.000000 -7.963416 13.793478 0.000000 0.000000 0.000000 13.223810" Properties=species:S:1:pos:R:3:forces:R:3 pbc="T T T"
Mo -0.0929734986 2.0465913903 3.2271165276 -0.383 1.292 -2.264
S 1.4209778223 1.0836923303 4.8208793218 -1.127 0.862 -1.855
S 1.524953197 0.9063166094 1.702053828 0.135 -1.631 0.074
Mo -1.6013774839 4.6286315249 3.2797848494 0.887 -1.552 -0.687
S 0.0334006902 3.8973783108 4.8086899031 0.265 -1.3 1.197
S 0.0084217552 3.7807957065 1.6539110048 -0.688 0.471 -2.394
Mo -3.1601883983 7.3381112835 3.5340230053 1.811 -0.603 -0.481
S -1.4314178604 6.4404611436 5.0136668627 -0.46 -0.745 -0.515
S -1.7302878553 6.5343651263 1.8757060545 -0.108 -1.646 -0.27
Mo -4.7425845838 10.0796939806 3.3608320138 -0.97 0.107 0.117
S -3.2186911913 9.2526975938 4.9822462507 -0.07 -2.192 1.299
S -3.1877669004 9.0563062665 1.8878727679 0.823 0.615 0.356
Mo -6.337871261 12.9549909039 3.3242185368 1.456 1.012 -0.236
S -4.6540672949 11.9529019042 4.9449074825 0.926 0.533 -0.094
S -4.6125591761 11.9149001099 1.8719774058 -0.331 -0.622 -0.077
Mo 3.1722748239 1.7399205922 3.2758492168 -0.199 0.726 -1.331
S 4.6121335457 0.9475705123 4.9778623712 0.701 0.843 -0.49
S 4.885155188 0.9643762294 1.7390032046 -0.589 -0.261 -1.423
Mo 1.6515662583 4.6002658476 3.2929645362 0.96 -0.289 -0.503
S 3.1168879989 3.7515760401 4.9660760248 1.191 0.222 0.042
S 3.2314408655 3.625169995 1.825902438 -0.158 -0.779 1.398
Mo 0.0688888612 7.4147786467 3.2010275782 -1.015 -0.462 0.217
S 1.9267985474 6.4856012109 1.7630540413 1.607 -0.39 -0.001
Mo -1.5807581986 10.0477630078 3.2655477048 0.065 0.2 0.593
S 0.0600066406 9.2799813822 4.9171052694 -0.734 0.297 0.92
S 0.0867177157 9.3506848701 1.6081474436 0.969 -0.543 -0.021
Mo -3.0906203958 12.9152425515 3.451507 1.453 0.399 0.609
S -1.4460596822 11.9427260739 4.937820181 -1.37 -0.114 1.019
S -1.6603007497 11.9242621393 1.8536111568 1.336 0.074 0.817
Mo 6.3795528096 1.865372048 3.3736910201 2.26 -1.349 -0.559
S 8.0705367226 0.8979238187 4.9179153469 0.037 -0.25 -0.747
S 7.9093331265 0.7979102154 1.7014317465 -0.083 -1.036 -0.994
Mo 4.6584023545 4.588094807 3.2436700826 -0.406 -0.704 -0.507
S 6.2053342608 3.8616876256 4.9602981062 -1.13 -0.209 -1.622
S 6.3138235633 3.750223992 1.8062201894 0.102 -0.104 -0.233
Mo 3.3215793233 7.1723150698 3.4967280201 0.912 -1.072 1.651
S 4.7240854603 6.4782795799 1.7226892884 0.65 1.68 -0.136
Mo 1.6740952216 10.0780232539 3.2301578283 -0.218 0.756 1.735
H 1.5011892817 6.6143237647 4.1122184402 1.237 -0.758 -1.584
S 3.1335712531 8.9880398947 1.7981889862 0.129 -0.239 -0.393
Mo 0.0980694381 12.8444608621 3.3040113796 0.962 1.489 -1.518
S 1.7203157843 11.9155597553 4.8164891902 2.13 0.128 -0.699
S 1.6822477504 11.800953473 1.6854604827 -4.019 0.34 0.559
Mo 9.4467788145 1.8101980408 3.21579268 -1.549 0.242 -0.917
S 11.0701387858 0.8833825073 4.6852915342 -0.416 -0.704 -0.423
S 10.9974474065 0.9763233445 1.5999935461 1.362 0.085 -2.328
Mo 7.7988865329 4.6018913921 3.4904674758 1.166 0.683 1.733
S 9.5053652629 3.6470559349 4.946828993 -1.354 2.177 0.731
S 9.400128505 3.6685285797 1.847292391 2.024 0.57 -1.203
Mo 6.2282724022 7.4770180479 3.2891908371 -0.785 0.1 0.597
S 7.7851470332 6.4765608531 4.8350693342 0.424 0.132 -1.188
S 8.0764411811 6.4795010546 1.8195654117 1.309 0.195 0.856
Mo 4.8770201187 10.0392763894 3.1983433936 2.134 -1.36 -0.985
S 6.4254859697 9.173188032 4.9549610877 1.319 -0.732 0.662
S 6.4693483988 9.0911024571 1.5988853864 0.117 -2.141 -1.607
Mo 3.1871763265 12.8631131334 3.2221917808 -1.881 -0.718 -0.81
S 4.7227095111 11.8470697703 4.6566833219 -1.251 2.496 -0.27
S 4.8622538065 11.7492146844 1.6513274189 0.319 -0.479 0.592
Mo 12.7159795543 1.8836685962 3.1749436474 0.475 -0.251 0.081
S 14.2264739832 0.9978943969 4.8394779103 -0.308 -0.648 0.702
S 14.2855431258 0.8923352201 1.6270431065 0.987 1.158 1.235
Mo 11.1091772604 4.495507322 3.2661668481 -0.081 -0.926 -0.198
S 12.7499379621 3.6042790061 4.7536656465 1.885 1.156 1.284
S 12.5677566925 3.7552629516 1.657260287 -0.435 0.776 2.063
Mo 9.6055963042 7.277759774 3.4522060712 -1.657 0.521 -0.047
S 11.2831047077 6.2795296366 5.0427245029 -0.198 -1.934 0.493
S 11.1682619037 6.404178718 1.8727506074 -0.259 -1.055 1.521
Mo 7.9909842328 10.140278044 3.2901227513 1.66 -0.955 0.47
S 9.5136615579 9.170351714 4.8995144746 1.536 -0.224 0.496
S 9.6511198864 9.1592564369 1.8451992817 1.163 -2.283 0.366
Mo 6.2448214051 12.9649215341 3.2578213853 -0.266 -0.496 -0.653
S 7.9005457203 12.0459467717 4.8548071525 1.753 -0.162 0.685
S 8.0361366474 12.0960985988 1.8196611743 -0.15 0.511 0.687
73
energy=-1373548.004298972 Lattice="15.927209 0.000000 0.000000 -7.963416 13.793478 0.000000 0.000000 0.000000 13.223810" Properties=species:S:1:pos:R:3:forces:R:3 pbc="T T T"
Mo -0.0820881268 2.0399549941 3.2219943764 1.254 -0.357 0.241
S 1.4655614057 1.0804696615 4.8340872001 0.412 1.862 -0.293
S 1.5193660285 0.9165484202 1.667252485 1.9 0.225 0.146
Mo -1.5867694634 4.6241995106 3.2759785265 1.172 0.48 1.568
S 0.0277342138 3.8648535944 4.7887750723 -2.92 2.52 -1.049
S 0.0161052438 3.7989901721 1.6762545082 0.829 0.001 -0.848
Mo -3.159111863 7.3298946451 3.5298365119 -1.307 -0.901 -2.11
S -1.4532174565 6.4118157755 5.015691784 0.442 0.167 -1.157
S -1.706741944 6.514250816 1.8643052584 -1.307 -0.747 -1.284
Mo -4.7638842512 10.0616606914 3.3626193178 -1.137 -0.779 1.069
S -3.1879469274 9.2927345043 4.9431246568 -0.373 -0.311 0.224
S -3.1518408749 9.0717166331 1.8606967629 -0.904 -0.563 -1.102
Mo -6.3246806969 12.9518084802 3.3343988667 -0.256 -0.043 1.213
S -4.6655435387 11.9258220282 4.9397282962 -0.202 -0.089 -0.069
S -4.6040548759 11.8951300151 1.8699502996 -0.136 -0.305 -0.247
Mo 3.1802301067 1.7505502458 3.2940243876 2.007 -0.917 0.596
S 4.6104963188 0.9536300498 4.9739833855 -2.325 -0.817 -0.109
S 4.8764918107 0.9693676854 1.7408681511 0.139 0.735 0.729
Mo 1.6424383206 4.5813606078 3.298421898 -0.923 -1.307 1.927
S 3.1392777419 3.7377165831 4.9940377074 0.09 0.457 1.617
S 3.2091240677 3.6318680148 1.8600148647 -1.643 0.562 -0.042
Mo 0.0744150308 7.4178603489 3.2212986861 2.322 0.621 -0.217
S 1.9396978571 6.4744053281 1.75829443 -0.832 -0.026 -0.514
Mo -1.5798656694 10.046901387 3.2597240276 0.622 -0.914 -1.429
S 0.0320556466 9.29830487 4.9392161133 0.065 0.072 0.028
S 0.0997360614 9.3513709387 1.6163128438 0.319 0.55 0.186
Mo -3.1008068462 12.9213255017 3.4312586166 0.479 -2.299 0.786
S -1.4328279388 11.9385451223 4.8937794056 -1.376 0.088 1.484
S -1.6340875764 11.8864087598 1.8211175956 0.039 1.39 -0.947
Mo 6.3766118276 1.8525046333 3.3793363321 -0.318 0.506 1.205
S 8.0539447605 0.8587375065 4.9224825634 -0.188 -0.073 -1.591
S 7.9378494459 0.8073973865 1.7186515357 1.689 0.504 0.051
Mo 4.6636442858 4.6110801717 3.2391273943 -0.49 -0.334 -1.011
S 6.1607328455 3.8549284289 4.9669904358 -1.86 0.952 0.896
S 6.3205632818 3.7233765761 1.8273015947 1.056 -0.647 0.379
Mo 3.3366224062 7.1598544001 3.5069965979 -0.737 0.334 -1.79
S 4.7182369881 6.4589421524 1.683266252 -0.255 0.241 -1.024
Mo 1.6656760402 10.0753740881 3.2162353126 -1.43 -0.171 -0.507
H 1.4856681004 6.5071697228 4.320391963 0.146 -0.329 0.572
S 3.1374209803 8.9712135835 1.7854879557 -0.454 0.339 -0.528
Mo 0.0909671651 12.8383491093 3.2967505441 -0.64 2.555 -2.947
S 1.7098743321 11.9338619852 4.8056981481 -0.126 1.199 0.099
S 1.6858476217 11.8260433308 1.6719690751 -0.383 -0.476 -0.262
Mo 9.4540150627 1.8135443902 3.235601237 -0.418 0.754 -0.673
S 11.0664952724 0.9345912808 4.698833212 -0.995 1.133 0.85
S 10.9826124026 0.9804149624 1.5992614857 -0.286 0.405 0.571
Mo 7.8164889506 4.6318967849 3.491161591 0.022 0.658 1.107
S 9.4956912322 3.6653155247 4.9692690266 -0.023 0.149 0.292
S 9.4093336849 3.7339045996 1.8562160268 0.39 -0.321 0.601
Mo 6.2023387889 7.4783443267 3.2792557554 -0.113 -1.664 1.646
S 7.7871194321 6.4820553751 4.8317300173 -0.719 0.432 1.601
S 8.0217550335 6.4978595875 1.8357077544 0.319 0.088 0.396
Mo 4.8998865032 10.052934082 3.2177249535 0.481 0.051 -0.665
S 6.4055243404 9.2106724393 4.9633028847 0.259 0.206 1.508
S 6.4433021573 9.0954700823 1.6247438841 -0.375 1.325 -0.01
Mo 3.1687166434 12.8614106733 3.2128373396 -2.175 1.009 3.551
S 4.7147974551 11.8222418141 4.6869193314 -1.005 -0.416 0.194
S 4.8387118419 11.7475902244 1.6480155615 -0.516 0.74 0.777
Mo 12.6964197505 1.9193158592 3.1771405322 0.311 0.286 -0.742
S 14.2201481428 0.9964607647 4.8312085592 -1.641 -0.347 -0.687
S 14.2861139964 0.8770920317 1.6099960353 -0.245 0.652 -1.046
Mo 11.1191186349 4.4954403231 3.2721760552 1.033 -0.197 0.955
S 12.7349442388 3.6021545048 4.7570846722 0.515 0.121 1.583
S 12.6083072628 3.7724568181 1.6108818372 0.472 0.977 -2.115
Mo 9.60258647 7.2946918426 3.4480708416 -0.924 -2.863 0.168
S 11.2914597662 6.291439968 5.0556772084 -1.077 -0.2 -0.508
S 11.1794556763 6.3911183447 1.8759137203 0.777 -0.071 -1.21
Mo 7.9873291024 10.1422259922 3.2837015052 0.27 -0.059 0.393
S 9.5346373457 9.1481636991 4.9078310024 -0.557 1.478 -0.61
S 9.6746351664 9.2034490924 1.8354746566 -0.824 0.751 1.628
Mo 6.237375745 12.9300759286 3.2611505239 1.254 -0.041 -0.708
S 7.8948151653 11.9826986349 4.8304924657 0.309 -2.013 -0.262
S 8.0241839145 12.0547710388 1.8145764771 -0.925 -1.438 0.951
73
energy=-1373527.865075271 Lattice="15.927209 0.000000 0.000000 -7.963416 13.793478 0.000000 0.000000 0.000000 13.223810" Properties=species:S:1:pos:R:3:forces:R:3 pbc="T T T"
Mo -0.0451309611 1.9763773245 3.2080351322 -0.799 2.201 0.241
S 1.5892242998 1.0390485923 4.8609075928 0.091 -0.079 -1.275
S 1.5253000324 0.9572823283 1.6124359829 -0.053 -0.205 0.682
Mo -1.5580067532 4.6190628845 3.2645694204 -0.058 -0.174 0.388
S -0.0015089253 3.7286696357 4.7827801777 0.271 -0.091 -0.602
S 0.0350133579 3.8573361181 1.7226939547 0.158 1.141 -1.063
Mo -3.1530816929 7.3079966269 3.5037897724 -0.566 -0.208 1.013
S -1.504729586 6.346486947 4.9642220462 -0.297 1.964 -0.344
S -1.5912494765 6.4606670081 1.8092704657 -1.198 -0.311 1.693
Mo -4.8070727498 10.0249601011 3.3804545091 -0.176 -0.144 -1.426
S -3.0801786834 9.3613319003 4.8501793454 -1.746 -0.065 -0.866
S -3.0858308387 9.1088046431 1.7627524997 0.496 0.569 0.59
Mo -6.2941411686 12.9300664378 3.3660514361 0.08 0.768 -0.199
S -4.7351295683 11.8697802007 4.9168765142 -0.514 -0.096 0.022
S -4.6246511866 11.8755608514 1.8521322669 -0.828 0.072 -1.564
Mo 3.1941335904 1.8051068957 3.3479544705 -1.295 0.943 1.714
S 4.6795920812 0.9645506043 4.9528839389 0.118 -0.004 1.179
S 4.8325909399 0.9541856714 1.781388675 -0.058 0.723 -0.701
Mo 1.628224732 4.5486212438 3.3102395909 0.854 1.836 -0.147
S 3.2067321787 3.7096399348 5.0270717833 -0.759 -0.577 0.039
S 3.1263138391 3.6160639081 1.8676584004 1.056 -0.298 -0.389
Mo 0.0956789449 7.4355918102 3.2925366407 0.445 0.2 -1.957
S 1.8805485743 6.4295823503 1.7842203362 -1.201 1.226 -0.692
Mo -1.5598625701 10.061305932 3.2666807776 1.513 0.534 -0.835
S -0.0032013358 9.293713432 4.9424043917 1.652 -0.303 -1.93
S 0.1041995533 9.2835324946 1.6708219445 0.353 1.042 1.405
Mo -3.1320248645 12.9295289097 3.3608049554 -0.483 -0.725 0.553
S -1.4300232296 11.9180912042 4.7630646726 -0.464 -0.74 0.733
S -1.538472191 11.8209858419 1.7095587675 0.62 -0.344 -0.122
Mo 6.3601748875 1.8100766769 3.4031042587 -0.517 -0.08 0.216
S 7.9771729215 0.7611485812 4.91265035 -0.306 -1.141 1.635
S 7.9902467955 0.8698536232 1.7730436132 -2.684 -0.619 0.883
Mo 4.6827461952 4.6843934175 3.2535566066 0.888 1.294 -0.667
S 6.0559021399 3.8024921882 4.9717989089 0.738 -1.461 -0.314
S 6.36008109 3.6389286036 1.8828269144 0.057 1.528 0.576