73
energy=-8378.0822 Lattice="15.927209 0.000000 0.000000 -7.963416 13.793478 0.000000 0.000000 0.000000 13.223810" Properties=species:S:1:pos:R:3:forces:R:3 pbc="T T T"
Mo 0.0791811 1.93523 3.32058 -0.625 -0.343 0.93
Mo -4.67564 10.0705 3.44569 -0.346 -0.936 0.495
S -3.03416 9.11394 4.95331 -1.841 0.404 0.626
S -3.10448 9.21024 1.8062 -0.924 -0.849 1.783
Mo -6.25808 12.8279 3.44623 -0.557 0.567 -0.06
S -4.66513 11.9047 5.04084 0.823 1.819 0.043
S -4.67119 11.9128 1.86532 0.894 -0.16 -1.414
Mo 3.22092 1.97352 3.38714 -0.399 -2.182 -0.661
S 4.81785 1.05645 4.95542 -1.214 0.741 0.326
S 4.76817 0.947648 1.83626 0.113 -1.277 1.841
Mo 1.67117 4.67882 3.09601 1.229 -0.186 0.498
S 1.63761 1.0417 4.95142 0.179 1.085 -0.313
S 3.22139 3.90282 4.84961 -0.384 -0.385 1.188
S 3.21928 3.55084 1.54292 0.07 0.706 -0.146
Mo 0.122314 7.31623 3.07182 1.293 -0.826 1.131
S 1.61677 6.40122 1.30489 0.479 -0.814 0.488
Mo -1.44893 10.0335 3.37698 1.103 -0.551 1.276
S 0.260733 9.07094 4.80902 1.666 -1.039 0.734
S -0.0579715 9.24056 1.53822 -0.861 0.072 0.345
Mo -3.08783 12.8279 3.45787 -1.473 -0.635 -1.132
S -1.45613 11.8678 4.94127 0.258 -1.098 2.26
S -1.56053 11.8879 1.82622 0.083 -1.174 -1.15
S 1.68644 0.953318 1.84021 -0.178 -0.309 -0.086
Mo 6.37148 1.92791 3.31977 -1.28 0.57 -0.166
S 7.98744 1.00253 4.8647 -0.575 -0.412 -0.334
S 7.91073 0.944992 1.73606 0.509 -0.937 -0.064
Mo 4.77856 4.67639 3.09527 -0.174 0.241 1.329
S 6.3395 3.84305 4.79733 -0.134 -0.037 -0.923
S 6.42393 3.62375 1.58988 -0.319 -0.541 -0.718
Mo 3.22243 7.28367 3.15984 0.384 0.866 0.221
S 4.82399 6.41299 1.30324 -0.326 0.017 -1.379
Mo 1.65129 10.0299 3.06589 0.26 -2.48 -0.97
H 3.25965 8.9662 3.98009 0.728 -0.439 -0.946
Mo -1.48083 4.63354 3.16465 0.179 -0.492 -1.521
S 3.21323 9.20361 1.42558 -2.206 -0.19 1.162
Mo 0.0831572 12.8052 3.32311 -0.95 -0.042 0.132
S 1.7214 11.7693 4.75944 0.95 -2.013 2.692
S 1.58498 11.9678 1.61431 -0.168 -1.475 1.47
Mo 9.53698 1.88485 3.23409 -1.594 0.025 0.09
S 11.1255 0.927165 4.7727 0.371 -0.952 0.35
S 11.1253 0.996239 1.65409 0.984 1.235 -0.516
Mo 7.92618 4.6387 3.1699 1.612 -0.189 -0.663
S 9.49464 3.74629 4.75649 0.861 0.1 -1.143
S 9.54998 3.70573 1.6486 0.656 1.605 0.272
S 0.0998373 3.84069 4.81612 -0.34 0.798 0.8
Mo 6.32223 7.31599 3.07389 0.587 0.453 0.362
S 7.83829 6.40852 4.80739 0.088 0.112 0.731
S 8.07948 6.42451 1.5666 1.206 -0.525 1.133
Mo 4.79301 10.0407 3.06983 2.305 0.471 -0.389
S 6.1967 9.0742 4.81212 0.498 -1.044 0.859
S 6.51729 9.24572 1.53495 1.277 -1.858 1.064
Mo 3.2249 12.8089 3.16836 -0.394 0.806 2.095
S 4.73068 11.7656 4.75405 -1.771 -0.692 -0.273
S 4.86397 11.9696 1.61857 -0.669 -0.612 0.458
Mo 12.7062 1.88458 3.23145 0.145 -0.3 -1.134
S 0.0192877 3.61817 1.5835 -0.772 -0.051 -0.595
S 14.2597 1.00882 4.84993 0.513 0.207 -0.32
S 14.3347 0.954966 1.728 -0.268 0.251 0.556
Mo 11.1217 4.61534 3.22729 0.283 0.315 0.122
S 12.7521 3.73543 4.75599 -0.083 -0.708 -2.284
S 12.7011 3.70644 1.6434 -0.353 0.084 0.999
Mo 9.50304 7.32269 3.31342 0.562 -1.185 2.32
S 11.1293 6.40776 4.84464 1.662 -1.177 -0.397
S 11.1223 6.49206 1.73431 0.184 -0.189 -0.828
Mo 7.9146 10.0272 3.37501 0.151 2.509 -0.598
S 9.48598 9.12583 4.94588 -0.865 -0.343 -1.689
Mo -3.0561 7.32739 3.30745 -0.549 -1.667 -0.402
S 9.5555 9.2122 1.81974 1.456 1.899 -1.38
Mo 6.36405 12.8097 3.32462 -0.403 2.024 0.962
S 7.89778 11.8686 4.95215 0.977 -1.291 -0.903
S 8.00918 11.8882 1.82357 1.372 -0.078 0.03
S -1.39045 6.40799 4.8037 0.69 0.558 0.221
S -1.62887 6.42853 1.57162 0.214 -1.04 0.981
73
energy=-8266.1704 Lattice="15.927209 0.000000 0.000000 -7.963416 13.793478 0.000000 0.000000 0.000000 13.223810" Properties=species:S:1:pos:R:3:forces:R:3 pbc="T T T"
Mo 0.125426 2.00107 3.32378 1.815 -3.055 0.274
Mo -4.65325 10.0986 3.45058 0.042 0.768 -0.459
S -3.02376 9.13061 4.94246 0.331 0.04 0.791
S -3.10241 9.24778 1.80342 0.498 -1.785 0.836
Mo -6.25449 12.7904 3.41033 2.64 -0.445 -0.543
S -4.60862 11.947 5.03265 -0.771 0.465 0.959
S -4.63112 11.9555 1.88073 0.216 -0.651 0.753
Mo 3.20853 1.94025 3.40628 -0.893 1.533 0.857
S 4.81634 1.07382 4.95323 0.753 -0.483 -1.042
S 4.76381 0.904172 1.89227 -0.183 -0.252 1.06
Mo 1.66735 4.7024 3.11668 0.99 -0.906 1.183
S 1.66697 0.934476 4.92702 -0.383 -0.279 -1.816
S 3.19979 3.85932 4.83152 0.937 -0.343 -0.918
S 3.18056 3.50235 1.58695 -0.652 -0.27 1.801
Mo 0.110473 7.35182 3.06026 -1.532 0.387 1.635
S 1.56516 6.38137 1.30521 -1.189 0.468 0.724
Mo -1.40251 9.99122 3.37931 1.627 1.744 1.433
S 0.310089 9.02852 4.84404 -1.418 -2.088 -0.302
S -0.078264 9.18894 1.48082 -0.578 -1.186 1.429
Mo -3.07211 12.8164 3.50768 1.709 -2.332 0.237
S -1.53147 11.8575 4.93061 1.736 -2.193 -1.907
S -1.56302 11.8667 1.86252 0.08 0.375 0.217
S 1.72938 0.952744 1.86294 -0.098 0.155 1.386
Mo 6.3434 1.91788 3.31296 0.42 0.453 -1.867
S 8.02031 1.08363 4.87964 0.167 -0.489 0.318
S 7.88524 0.871393 1.76183 1.769 0.996 -0.826
Mo 4.76261 4.6917 3.08934 -1.278 -1.162 1.13
S 6.30887 3.88782 4.76188 -0.407 -0.38 0.002
S 6.3864 3.65204 1.60794 -1.445 -0.657 -0.527
Mo 3.19791 7.26895 3.17962 1.037 2.559 -2.148
S 4.79576 6.47004 1.29873 0.585 -0.548 -0.91
Mo 1.62112 9.98669 3.04808 1.031 0.291 1.791
H 3.30706 8.79245 4.20735 -0.403 -0.172 1.062
Mo -1.48558 4.61324 3.13619 -1.309 -0.584 -0.333
S 3.13646 9.21467 1.40335 0.557 -0.171 -1.417
Mo 0.100193 12.7912 3.35331 -0.562 -0.699 -1.805
S 1.7332 11.7648 4.76179 -1.495 -0.147 -0.239
S 1.5764 11.9243 1.61633 -0.71 0.288 0.296
Mo 9.51504 1.91373 3.23125 0.805 -0.671 -2.167
S 11.1424 0.932807 4.74094 -1.346 1.773 -0.067
S 11.1275 0.939929 1.67308 0.335 -1.421 -1.002
Mo 7.91295 4.66875 3.16437 -0.509 -0.983 -0.162
S 9.50702 3.79627 4.74569 0.469 -1.723 0.727
S 9.52842 3.74853 1.63652 0.506 0.555 -2.719
S 0.0373489 3.87654 4.8512 -0.589 -0.474 -0.074
Mo 6.29616 7.35582 3.07473 -0.531 -1.046 0.351
S 7.82849 6.40385 4.82881 0.047 -0.623 0.288
S 8.08966 6.4118 1.56358 -0.301 2.581 0.978
Mo 4.79271 10.0645 3.06517 1.105 0.556 0.55
S 6.22696 9.08332 4.82879 0.624 -0.69 1.257
S 6.58995 9.24838 1.50997 -0.382 -0.336 0.17
Mo 3.21844 12.8115 3.16465 -0.041 1.169 1.325
S 4.72962 11.7475 4.77398 -1.447 0.617 0.386
S 4.87918 11.9438 1.60922 -0.301 -0.772 0.719
Mo 12.7015 1.91698 3.18642 -0.38 -0.597 0.288
S 0.0199617 3.61056 1.55495 -0.846 -1.719 0.376
S 14.2274 1.1536 4.80557 -0.399 -0.807 0.97
S 14.3603 0.972301 1.73917 1.307 -0.866 -1.172
Mo 11.1164 4.57223 3.20796 0.429 0.533 0.065
S 12.7385 3.69468 4.72898 0.46 -0.3 -0.994
S 12.7301 3.74855 1.59561 -0.033 1.056 -1.403
Mo 9.5122 7.27709 3.34942 1.29 -0.125 0.279
S 11.1745 6.33301 4.85114 0.155 0.155 -0.561
S 11.1099 6.50417 1.74349 1.174 2.181 -0.317
Mo 7.98805 9.96757 3.37766 3.294 2.21 0.144
S 9.49871 9.19477 4.9558 -0.063 1.261 0.807
Mo -3.07948 7.33683 3.28734 -1.015 -0.915 0.725
S 9.58984 9.2271 1.83735 -1.297 -0.128 2.103
Mo 6.35582 12.8412 3.35689 -0.345 -0.216 1.165
S 7.92309 11.845 4.92905 1.017 0.64 0.764
S 7.99186 11.8625 1.84334 -0.477 0.675 0.003
S -1.3956 6.39638 4.7545 -1.459 0.037 -0.06
S -1.61865 6.446 1.57182 -0.034 -1.038 0.62
73
energy=-8225.5298 Lattice="15.927209 0.000000 0.000000 -7.963416 13.793478 0.000000 0.000000 0.000000 13.223810" Properties=species:S:1:pos:R:3:forces:R:3 pbc="T T T"
Mo 0.0186808 1.93116 3.33717 1.583 0.297 1.288
Mo -4.52614 9.9148 3.5416 -1.724 1.213 0.254
S -2.88955 8.85251 5.04463 -0.394 -0.148 0.296
S -2.98601 9.2172 1.84054 -0.065 -2.616 0.069
Mo -6.18601 12.8428 3.37767 1.06 -2.043 -0.354
S -4.63419 11.8687 5.04436 -1.095 0.384 -0.085
S -4.57647 11.8674 2.0454 1.156 -0.792 2.27
Mo 3.23858 2.01661 3.53897 -0.713 1.631 -0.004
S 4.93903 1.10928 5.09117 -0.28 -1.192 1.445
S 4.71225 0.800849 2.0139 1.162 1.743 -1.518
Mo 1.69079 4.70246 3.17041 -0.856 -0.767 -0.401
S 1.52714 1.05124 4.97256 -0.689 -0.396 -0.076
S 3.18175 3.98457 4.99859 -0.976 -2.045 -1.121
S 3.16074 3.48454 1.59782 -0.938 1.31 -0.122
Mo 0.0450514 7.18284 2.90915 -1.506 1.138 -0.488
S 1.67551 6.29299 1.30387 0.038 -0.068 0.907
Mo -1.44994 10.0441 3.55316 -0.957 1.163 -1.473
S 0.324959 8.91311 4.68084 -1.063 0.31 0.46
S -0.11722 9.33471 1.69608 0.568 -0.254 1.418
Mo -2.9697 12.7857 3.72472 1.329 -0.535 1.174
S -1.30026 11.819 5.19775 0.605 0.351 -0.357
S -1.44929 11.9113 2.04429 0.046 0.543 1.192
S 1.6928 0.982351 1.83773 -0.157 -1.417 1.494
Mo 6.34045 2.02501 3.40242 1.872 0.093 0.857
S 8.04284 1.0753 4.83571 -0.404 -0.489 -0.573
S 7.74809 0.801437 1.84773 0.488 -1.185 0.923
Mo 4.67971 4.68203 3.11081 2.225 -0.504 0.222
S 6.17589 4.00742 4.81163 0.532 2.399 1.508
S 6.17458 3.59112 1.618 -1.109 -1.267 -0.692
Mo 3.15871 7.34762 3.22406 0.225 0.552 0.946
S 4.71401 6.41282 1.37116 -0.003 0.091 -1.055
Mo 1.79967 10.0379 3.04583 0.971 0.146 1.112
H 3.3484 9.05565 4.18743 -0.958 -0.2 1.635
Mo -1.52528 4.65639 2.91399 0.436 -0.51 0.762
S 3.36242 9.20495 1.37921 0.991 -0.169 0.467
Mo 0.187888 12.7993 3.60503 -0.995 1.14 0.713
S 1.95054 11.7085 4.81656 0.972 -0.278 0.207
S 1.48017 12.0671 1.69679 0.857 0.599 -0.226
Mo 9.46099 1.82272 3.06153 0.072 -0.774 -1.341
S 11.1698 1.05412 4.57388 -0.766 -1.875 -2.463
S 11.0002 0.929689 1.44291 -1.004 0.321 -0.7
Mo 7.77299 4.69094 3.11778 -1.834 0.793 0.614
S 9.4589 3.72669 4.52122 -0.232 0.387 -0.38
S 9.31564 3.71824 1.53806 -0.109 -0.996 -1.149
S -0.0545314 3.95512 4.6995 0.474 1.306 0.749
Mo 6.24137 7.33951 3.10311 -1.058 1.15 -0.645
S 7.7505 6.3586 4.85676 0.33 -0.826 1.495
S 8.07127 6.60028 1.63338 0.688 1.434 0.899
Mo 4.91431 10.1357 3.00875 0.077 0.076 0.483
S 6.16525 9.12062 4.82525 -0.719 -1.007 0.019
S 6.59712 9.20727 1.51207 -0.072 -0.959 0.63
Mo 3.21893 12.8527 3.12378 2.511 -0.798 -1.941
S 4.79199 11.846 4.71847 -1.315 -1.699 -0.745
S 4.9269 12.1384 1.63943 -0.22 -0.046 -0.442
Mo 12.6933 1.79116 2.87147 0.074 -0.377 1.181
S 0.11894 3.61965 1.58716 1.113 0.192 -0.378
S 14.0627 1.00574 4.767 -1.058 -0.846 -0.077
S 14.5281 0.824979 1.63657 -1.491 -1.132 -0.447
Mo 11.016 4.65346 2.94039 0.051 -0.478 -0.013
S 12.6373 3.71878 4.40265 0.991 -0.189 -1.309
S 12.6032 3.7486 1.44084 -1.691 0.404 0.742
Mo 9.49251 7.30783 3.48757 -0.331 0.567 -0.854
S 11.1664 6.30453 4.75049 -0.736 2.1 -1.109
S 11.0255 6.65472 1.68152 -0.562 -0.152 1.727
Mo 7.97415 10.0429 3.46197 -0.444 -1.375 -0.882
S 9.59403 9.08831 5.06655 1.399 1.133 -0.626
Mo -3.03771 7.23636 3.21759 -0.906 0.345 -0.347
S 9.6355 9.20947 1.92797 -0.612 0.185 0.206
Mo 6.44497 12.8648 3.39572 -2.425 -0.43 0.2
S 8.00639 11.936 4.9712 -0.113 -0.821 0.244
S 7.99678 11.8898 1.8619 0.276 -0.548 1.769
S -1.44818 6.26743 4.66221 -0.981 0.468 -0.082
S -1.74351 6.47428 1.38459 -0.999 0.628 -0.185
73
energy=-8107.0747 Lattice="15.927209 0.000000 0.000000 -7.963416 13.793478 0.000000 0.000000 0.000000 13.223810" Properties=species:S:1:pos:R:3:forces:R:3 pbc="T T T"
Mo 0.142023 1.87719 3.33138 0.597 0.047 0.791
Mo -4.7657 10.1329 3.7776 -1.021 -0.562 -0.166
S -3.04758 9.10403 5.10462 -0.618 -0.448 0.696
S -3.05448 9.44589 2.0969 -1.759 0.676 -0.201
Mo -6.2693 12.9174 3.99614 -0.686 0.457 -0.896
S -4.67981 11.8953 5.54689 -0.466 1.161 1.132
S -4.59383 11.9985 2.38768 0.526 0.893 -0.719
Mo 3.27593 2.04652 3.68106 -0.042 0.116 -1.178
S 4.819 1.2663 5.39806 -0.037 0.759 -0.524
S 4.8206 0.947017 2.31957 1.659 -0.83 -0.053
Mo 1.47302 4.69653 2.69785 0.146 2.355 0.308
S 1.55066 1.40823 5.21953 -0.617 -0.604 -0.681
S 2.99317 4.32826 4.64878 -0.257 -0.101 0.465
S 3.24565 3.34339 1.54256 -1.369 0.561 0.037
Mo 0.202729 7.39853 2.62368 0.011 -0.951 0.6
S 1.72301 6.42582 0.942408 0.418 -0.149 -1.362
Mo -1.35825 10.0515 3.60783 -0.431 -0.594 1.084
S 0.526645 8.92676 4.53571 -0.779 0.521 0.309
S -0.44791 9.38895 1.46048 1.227 0.106 0.823
Mo -2.93229 12.8122 4.10308 0.691 -0.855 -0.285
S -1.11303 11.7569 5.33767 -1.014 0.261 2.209
S -1.63632 11.9156 2.11413 -0.084 0.197 0.739
S 1.80385 0.855623 2.10632 1.041 0.636 0.582
Mo 6.4573 2.05953 3.79524 -0.575 -0.207 0.295
S 8.19283 0.917855 4.9345 -1.981 -0.229 -1.029
S 7.79664 0.978427 2.02265 -1.772 0.595 -0.902
Mo 4.8468 4.69121 2.92642 0.072 1.367 1.514
S 6.50026 4.27825 4.75063 0.997 0.141 0.116
S 6.5667 3.22413 1.64626 1.334 -0.682 -0.298
Mo 3.08711 7.26574 3.02709 -1.816 -0.186 0.721
S 4.799 6.53009 1.20092 -0.636 2.38 -0.779
Mo 1.54646 10.1881 2.70997 -0.389 0.839 0.452
H 2.41782 8.41102 4.60066 0.557 -0.759 -1.417
Mo -1.44545 4.47008 2.74296 1.626 -0.51 0.631
S 3.06638 9.05358 1.18902 -2.2 -0.85 -0.995
Mo 0.0330853 12.7514 3.49192 1.437 -1.331 0.651
S 1.94181 11.6696 4.57119 -0.42 -0.687 1.315
S 1.25263 12.2978 1.43713 2.583 -0.24 1.904
Mo 9.61032 1.72324 3.09674 0.602 0.97 -0.313
S 11.2243 0.688202 4.51617 -0.245 1.285 -0.768
S 11.1433 1.0873 1.52924 -0.014 1.191 0.879
Mo 8.05158 4.52985 2.93615 0.659 0.594 0.976
S 9.52754 3.59095 4.60763 0.83 -0.546 -0.631
S 9.70741 3.52742 1.55171 1.298 0.232 -0.788
S 0.065343 3.93976 4.53315 -1.056 -0.935 1.747
Mo 6.33366 7.31597 2.86426 -0.905 1.013 0.628
S 7.67328 6.20104 4.6091 -1.186 -1.229 0.232
S 8.102 6.41676 1.42444 0.965 0.315 0.353
Mo 4.60882 10.0391 2.88384 -1.313 -0.385 1.486
S 5.5861 8.98035 4.57597 -2.023 -1.116 0.287
S 6.55984 9.39794 1.49507 1.426 -0.254 -0.537
Mo 3.17289 12.7253 2.78446 -0.216 -0.05 -0.464
S 4.40581 11.8277 4.62699 -0.251 0.26 -0.119
S 5.04542 12.0341 1.4425 1.323 0.006 -1.416
Mo 12.7812 1.91797 3.14367 0.271 -0.212 -0.232
S -0.0588029 3.23084 1.30575 0.453 -1.095 -1.838
S 14.2723 1.04922 4.87989 1.156 0.641 -0.468
S 14.4701 0.90587 1.77092 0.59 -1.024 0.881
Mo 11.165 4.71521 3.15976 -2.241 0.769 -1.18
S 12.8637 3.85776 4.544 -1.933 -1.42 -1.34
S 12.5124 3.60405 1.48127 0.596 -0.869 0.108
Mo 9.47048 7.1623 3.2235 -0.791 0.769 -1.117
S 11.1921 6.44313 4.86218 1.567 -0.135 -0.43
S 11.268 6.69385 1.75601 -1.088 -1.545 0.636
Mo 7.69984 9.95715 3.61037 0.131 -0.852 1.289
S 9.30419 8.91279 5.01763 0.749 -0.314 -1.128
Mo -2.90342 7.4049 3.39492 -0.49 -0.693 0.926
S 9.58594 9.32486 2.07659 -0.911 0.257 -0.997
Mo 6.35111 12.7822 3.46368 1.296 0.939 -0.631
S 7.74802 11.7813 5.23885 0.33 0.52 0.438
S 8.12932 11.952 2.16023 0.834 -0.428 0.158
S -1.06933 6.19875 4.40754 -1.323 0.376 -0.935
S -1.79158 6.39748 1.4604 -0.913 -1.541 -1.205
73
energy=-8087.91 Lattice="15.927209 0.000000 0.000000 -7.963416 13.793478 0.000000 0.000000 0.000000 13.223810" Properties=species:S:1:pos:R:3:forces:R:3 pbc="T T T"
Mo 0.175675 1.83851 3.37113 0.477 1.204 0.445
Mo -4.76877 10.1386 3.85452 0.772 0.444 3.007
S -3.01305 9.05415 5.11253 -0.125 1.062 -0.385
S -3.11056 9.39297 2.10889 -1.523 0.856 1.051
Mo -6.24247 12.9137 4.00432 0.226 0.149 -2.462
S -4.65726 11.6932 5.50823 -0.683 -0.297 -0.332
S -4.56648 12.1034 2.39345 -0.098 -1.434 0.758
Mo 3.28057 2.06873 3.69411 0.125 0.654 -1.133
S 4.83764 1.23212 5.43037 -0.93 -1.673 0.56
S 4.86607 0.941457 2.29466 -1.185 0.176 -0.049
Mo 1.48059 4.68098 2.65757 -0.799 2.418 0.14
S 1.53576 1.33982 5.31047 1.585 -1.942 0.92
S 3.03669 4.36125 4.54037 -1.204 -0.147 -0.177
S 3.2234 3.41004 1.55465 -1.715 0.413 -0.151
Mo 0.219539 7.38901 2.64831 -1.273 -0.391 1.08
S 1.6782 6.46277 0.920333 1.306 1.511 0.624
Mo -1.42547 10.0396 3.59279 1.162 -1.421 0.905
S 0.487443 8.96967 4.55066 -1.396 0.22 0.54
S -0.419497 9.44331 1.4414 -0.763 1.406 -0.554
Mo -2.90835 12.8306 4.07143 -1.903 -0.648 0.458
S -1.1571 11.692 5.35753 -0.098 0.132 -0.714
S -1.67659 11.9549 2.10832 -0.02 1.37 -1.169
S 1.83052 0.812068 2.10758 -0.488 1.548 0.684
Mo 6.43385 2.0245 3.77836 1.809 1.744 1.968
S 8.24894 1.02058 4.96906 -0.36 -0.147 -0.5
S 7.77077 1.02645 2.00246 -2.36 -0.181 -0.252
Mo 4.8794 4.66978 2.91916 -1.528 -1.099 -0.46
S 6.48809 4.24832 4.74572 -1.063 -0.597 -0.486
S 6.53148 3.22973 1.63672 1.448 -0.193 -1.058
Mo 3.08105 7.2946 2.98931 0.272 -1.175 -0.43
S 4.73894 6.47998 1.17885 -1.003 -0.556 0.09
Mo 1.52173 10.2132 2.69022 0.19 -0.225 -0.586
H 2.4104 7.95735 4.51169 -0.852 -1.146 0.284
Mo -1.46895 4.49545 2.82073 -1.956 0.245 -0.023
S 3.14908 9.13611 1.11746 0.391 0.622 2.026
Mo 0.0397597 12.7622 3.50498 0.076 -0.953 0.069
S 1.85565 11.7498 4.57057 0.912 -1.096 0.505
S 1.30998 12.2643 1.48134 -0.145 -1.109 0.03
Mo 9.62903 1.77361 3.13924 1.706 2.743 -1.44
S 11.2409 0.715618 4.52525 0.465 0.105 -1.131
S 11.0606 1.14029 1.47128 -0.232 0.653 1.294
Mo 8.08837 4.5333 2.90556 -0.963 0.04 1.135
S 9.49371 3.62946 4.54868 0.032 -0.111 0.104
S 9.77764 3.58097 1.54983 -0.078 1.027 -0.493
S 0.1069 3.91276 4.56923 -2.006 -0.698 0.608
Mo 6.30031 7.30373 2.86398 0.675 0.208 -0.831
S 7.73355 6.26919 4.5461 0.636 -0.383 1.57
S 8.01887 6.31499 1.35488 0.284 0.449 0.5
Mo 4.60491 10.0551 2.85697 -1.36 -0.072 -2.2
S 5.54353 8.94869 4.54759 -1.12 -0.168 0.419
S 6.58004 9.3228 1.51582 -0.037 0.259 0.4
Mo 3.21595 12.7533 2.78935 1.8 0.417 0.606
S 4.43826 11.7945 4.61205 0.386 0.539 0.287
S 5.09586 12.0327 1.51215 -0.45 1.13 -0.624
Mo 12.7062 1.85565 3.09795 0.941 1.214 0.219
S -0.0654821 3.2614 1.3725 -1.138 -0.752 -0.358
S 14.2485 1.13811 4.80591 -0.063 1.407 0.471
S 14.375 0.925097 1.81229 1.423 1.434 0.337
Mo 11.1235 4.68455 3.1421 0.989 0.349 -0.43
S 12.9558 3.84703 4.51577 1.607 -0.255 -0.989
S 12.5166 3.67506 1.50457 -0.833 -1.668 0.232
Mo 9.51828 7.17236 3.21038 0.806 0.83 0.87
S 11.1868 6.34313 4.82333 0.351 -1.262 1.644
S 11.2581 6.68901 1.76048 0.167 0.219 0.555
Mo 7.70011 9.9381 3.60305 1.589 0.816 0.212
S 9.31191 8.81564 5.036 -0.186 0.314 0.064
Mo -2.89758 7.40251 3.45062 1.461 1.889 0.528
S 9.62402 9.31063 2.11804 1.454 -1.623 -0.151
Mo 6.35021 12.7719 3.46901 -0.127 0.315 -0.012
S 7.76031 11.8096 5.24263 -1.143 1.201 0.55
S 8.16396 11.9384 2.16831 1.196 -0.29 0.202
S -1.08078 6.21705 4.40873 -0.358 0.203 0.68
S -1.8472 6.4485 1.47228 -1.292 -0.568 0.261
73
energy=-8081.9827 Lattice="15.927209 0.000000 0.000000 -7.963416 13.793478 0.000000 0.000000 0.000000 13.223810" Properties=species:S:1:pos:R:3:forces:R:3 pbc="T T T"
Mo 0.192432 1.8445 3.41474 0.361 1.013 -0.558
Mo -4.70753 10.0623 3.93282 0.823 -1.435 1.282
S -2.91019 9.02899 5.25336 0.487 0.097 -0.647
S -3.44488 9.28399 2.19084 -0.121 -1.109 1.262
Mo -6.19541 12.9032 4.05023 -0.729 -1.207 0.228
S -4.52737 11.6359 5.39493 1.016 -0.384 -0.094
S -4.51025 12.0951 2.45791 1.498 -0.074 1.444
Mo 3.26019 2.09721 3.69215 -0.101 0.874 -1.304
S 4.78301 1.14041 5.33296 1.273 1.337 0.398
S 4.87131 0.892359 2.33441 1.128 0.64 -2.078
Mo 1.55482 4.66246 2.59914 0.571 0.847 1.506
S 1.68727 1.10677 5.28838 -0.995 -1.116 -0.149
S 3.1665 4.41261 4.5304 0.948 -1.407 0.772
S 3.17649 3.39536 1.61539 -0.45 0.564 -1.545
Mo 0.130086 7.41063 2.70568 -0.167 -0.488 0.02
S 1.66081 6.47129 0.917862 0.69 -1.229 0.148
Mo -1.52605 10.029 3.54557 -1.633 0.241 -1.782
S 0.471082 9.01182 4.57037 0.297 1.187 -0.007
S -0.38733 9.48838 1.44233 -1.538 -0.683 -1.109
Mo -2.98897 12.889 4.04487 0.212 -1.151 0.451
S -1.21104 11.6839 5.2007 -1.396 0.43 -1.017
S -1.71032 11.9823 2.19545 0.227 0.476 0.275
S 2.00349 0.835792 2.16568 -0.772 -2.902 1.855
Mo 6.42029 1.99281 3.73586 1.098 1.133 -0.637
S 8.22453 1.06895 5.00482 -0.806 0.617 -0.75
S 7.79219 1.02385 2.00991 -0.772 1.131 -0.381
Mo 4.92665 4.68448 2.88566 0.076 -0.561 -0.893
S 6.53099 4.2152 4.71985 -0.221 -1.527 1.002
S 6.50049 3.23941 1.59594 0.441 -1.499 -0.113
Mo 3.12971 7.33706 2.87648 -0.766 3.32 -1.273
S 4.67485 6.26344 1.08336 0.81 0.418 -1.056
Mo 1.52888 10.145 2.67887 1.534 -0.704 1.103
H 1.95353 7.46701 4.58561 0.643 0.67 0.768
Mo -1.48689 4.60235 2.95076 -0.175 0.358 0.125
S 3.22104 9.29561 1.02465 0.05 -1.08 1.012
Mo 0.0618069 12.8925 3.52234 0.09 -2.352 -0.368
S 1.90637 11.8289 4.50495 1.646 -0.46 -1.436
S 1.30156 12.3014 1.53891 -0.239 0.482 0.523
Mo 9.63031 1.91402 3.18727 0.261 0.141 -1.182
S 11.171 0.80672 4.58429 -0.679 1.486 0.706
S 11.0364 1.03426 1.392 0.091 0.147 0.318
Mo 8.04327 4.54418 2.87045 -0.073 0.726 -1.477
S 9.52657 3.81847 4.61346 -0.288 2.502 1.251
S 9.739 3.58521 1.52814 -1.516 1.726 1.45
S 0.15026 3.94279 4.54955 -0.203 -0.572 0.181
Mo 6.2326 7.23639 2.84094 1.418 0.572 -0.625
S 7.69137 6.21036 4.53899 0.386 -0.329 -0.855
S 8.07503 6.31754 1.34972 0.358 -1.135 0.942
Mo 4.66777 10.0209 2.83497 -0.156 -0.344 1.622
S 5.64056 9.0633 4.58646 0.51 0.267 1.876
S 6.5475 9.21057 1.48457 2.067 -0.485 -0.46
Mo 3.27784 12.8516 2.82013 0.897 0.284 0.642
S 4.55684 11.7022 4.63659 0.293 0.376 -0.081
S 5.14634 12.0818 1.48242 0.667 0.45 -0.065
Mo 12.5804 1.82828 2.98226 0.671 1.797 1.469
S -0.137218 3.24609 1.44889 0.375 0.808 0.154
S 14.1028 1.15091 4.71817 -0.58 1.812 -1.121
S 14.2867 0.915169 1.86798 0.126 -0.474 -1.575
Mo 11.1507 4.59613 3.10233 0.801 2.21 1.037
S 12.8876 3.70821 4.43229 0.869 0.17 0.229
S 12.5926 3.66103 1.48391 0.424 -0.462 0.318
Mo 9.53424 7.23709 3.16699 1.351 -1.258 0.586
S 11.162 6.32083 4.83031 0.651 -0.198 -1.392
S 11.3499 6.47027 1.70936 1.758 -0.055 -0.217
Mo 7.71072 9.9169 3.61728 1.547 0.065 0.189
S 9.38317 8.77295 5.03364 -1.313 -1.531 0.548
Mo -2.97905 7.31271 3.52079 -0.397 -1.253 0.474
S 9.52865 9.36956 2.06903 -0.119 0.11 0.363
Mo 6.34395 12.8018 3.51099 -0.78 0.121 0.424
S 7.7286 11.7426 5.22252 -1.233 1.135 -1.333
S 8.22715 11.8251 2.29729 0.751 -1.315 -0.221
S -0.99196 6.32108 4.62383 -0.659 -0.078 -0.928
S -1.73908 6.51124 1.48267 0.237 0.219 -0.674
73
energy=-8062.7042 Lattice="15.927209 0.000000 0.000000 -7.963416 13.793478 0.000000 0.000000 0.000000 13.223810" Properties=species:S:1:pos:R:3:forces:R:3 pbc="T T T"
Mo 0.160198 1.8646 3.47456 1.053 -0.017 -0.162
Mo -4.6934 9.94607 3.90488 2.326 -0.011 0.258
S -2.87692 8.98008 5.23841 1.888 0.484 -0.739
S -3.53467 9.19902 2.25939 -0.389 1.006 -0.514
Mo -6.17979 12.8279 4.09201 1.161 -0.127 -1.811
S -4.58957 11.779 5.58323 0.473 0.145 0.612
S -4.59078 11.7846 2.5341 -1.49 -1.05 -1.448
Mo 3.28161 2.1357 3.6899 -0.496 0.858 -2.584
S 4.84048 1.18641 5.31586 0.465 -0.838 0.702
S 4.77557 0.958168 2.24561 -2.134 -1.364 -1.224
Mo 1.69673 4.58948 2.59601 -0.463 -1.514 -0.274
S 1.69225 1.04002 5.19804 -0.405 0.645 -1.026
S 3.2258 4.36364 4.6468 0.47 -0.117 -0.991
S 3.14872 3.43755 1.50757 -1.458 1.355 -1.81
Mo 0.0814974 7.45158 2.76359 -0.722 0.131 1.388
S 1.45473 6.5422 1.00847 0.135 0.298 1.326
Mo -1.55427 9.97458 3.49814 0.028 1.679 0.682
S 0.323031 9.04292 4.60535 -0.727 0.186 -1.334
S -0.341736 9.47034 1.39498 0.964 1.128 1.262
Mo -3.04308 12.9537 4.01498 0.785 -0.339 -0.007
S -1.27729 11.8162 5.19379 1.047 1.499 0.587
S -1.59375 12.0697 2.17536 -1.199 0.828 1.531
S 2.04346 0.789012 2.25582 -0.212 -1.093 -0.873
Mo 6.38866 2.00436 3.68786 0.759 -0.592 -0.235
S 8.20696 1.17549 4.97175 -2.145 0.413 1.103
S 7.84438 1.15612 1.90058 1.475 -1.547 0.271
Mo 4.89553 4.61984 2.87157 1.327 0.592 -0.352
S 6.46353 4.09597 4.71168 0.663 0.08 -0.856
S 6.49911 3.24797 1.65241 0.418 -0.165 0.039
Mo 3.21856 7.4306 2.73278 2.191 1.198 0.551
S 4.75714 6.16997 1.01639 -0.827 -0.608 0.583
Mo 1.60246 10.0976 2.69696 1.515 0.055 -0.579
H 1.8852 7.99979 4.02876 0.959 0.031 -0.783
Mo -1.45081 4.67431 3.00664 -0.444 0.134 -0.113
S 3.21742 9.25806 1.03873 1.342 1.275 -0.283
Mo 0.0866496 12.9543 3.51814 0.227 -0.632 0.963
S 1.94759 11.7102 4.5205 1.871 0.247 0.047
S 1.42204 12.3469 1.55706 0.82 -0.695 1.172
Mo 9.56655 1.9877 3.21461 -0.632 -0.094 0.97
S 11.1554 0.832049 4.56785 -0.858 -0.09 -0.716
S 10.8193 1.07653 1.47379 -0.083 1.573 0.5
Mo 7.96891 4.51333 2.85611 -0.695 0.3 -0.059
S 9.47821 3.86734 4.62267 -1.545 1.707 0.315
S 9.65865 3.62583 1.47652 -0.233 -0.995 0.352
S 0.324638 3.96043 4.54832 -0.011 -0.051 0.54
Mo 6.14891 7.2219 2.81861 0.551 -0.594 -0.029
S 7.80101 6.29755 4.4637 0.361 0.869 -0.031
S 8.20454 6.52359 1.46657 -1.342 0.067 -1.026
Mo 4.75842 10.0267 2.83909 -0.4 0.16 -0.13
S 5.63899 8.92152 4.62864 -0.367 -0.448 -0.183
S 6.7002 9.29111 1.45908 0.064 0.571 -1.077
Mo 3.31201 12.8347 2.8939 -1.338 1.643 -1.459
S 4.51784 11.7462 4.64804 0.231 -0.098 0.224
S 5.12503 12.1053 1.50859 0.383 1.418 1.012
Mo 12.5596 1.85277 2.90165 -0.589 1.149 0.804
S -0.271138 3.36908 1.59224 0.998 -0.494 -0.015
S 14.0214 1.13338 4.74162 -0.936 0.305 -1.968
S 14.4432 0.915975 1.7955 0.402 0.808 0.978
Mo 11.2081 4.50722 3.05174 0.665 -0.045 0.699
S 12.7758 3.53356 4.52337 -0.695 1.376 1.797
S 12.7886 3.66775 1.45023 -0.069 1.032 -0.284
Mo 9.48165 7.26669 3.14793 0.815 0.757 1.497
S 10.905 6.28646 4.74597 0.495 0.083 3.551
S 11.3241 6.4544 1.77435 -0.941 -0.687 0.416
Mo 7.72323 9.87407 3.59068 -0.846 1.351 -1.261
S 9.41134 8.86881 5.03809 -1.196 0.827 -0.492
Mo -3.00481 7.20935 3.52319 -0.509 0.693 -0.202
S 9.651 9.36614 2.0889 0.994 1.201 -1.258
Mo 6.35777 12.7782 3.54449 1.938 -1.379 0.937
S 7.81079 11.753 5.21013 -0.219 -2.054 -0.401
S 8.22853 11.9214 2.26765 -0.628 1.04 -1.074
S -1.07242 6.43002 4.66724 -0.431 0.236 0.006
S -1.79635 6.54939 1.54352 1.396 0.586 -0.733
73
energy=-8061.2545 Lattice="15.927209 0.000000 0.000000 -7.963416 13.793478 0.000000 0.000000 0.000000 13.223810" Properties=species:S:1:pos:R:3:forces:R:3 pbc="T T T"
Mo 0.12947 1.87325 3.48823 0.926 0.122 -0.259
Mo -4.67198 9.91599 3.95518 0.149 0.029 -1.005
S -2.92727 8.86408 5.18546 -0.543 2.854 -0.202
S -3.4963 9.13609 2.19487 -0.789 -2.233 0.659
Mo -6.16909 12.7829 4.09529 0.295 0.085 -0.187
S -4.59157 11.8369 5.56348 0.075 -0.154 -2.676
S -4.66675 11.7207 2.47271 0.055 0.512 0.595
Mo 3.29554 2.16568 3.69145 -0.25 -0.085 1.179
S 4.85631 1.262 5.37204 0.629 0.828 0.242
S 4.79229 0.993022 2.20842 -1.291 -0.514 0.897
Mo 1.79302 4.57445 2.59001 -0.893 -1.189 -0.53
S 1.74207 1.03312 5.21644 1.085 -0.642 -0.085
S 3.20162 4.35485 4.6788 -0.952 -0.431 -1.767
S 3.14781 3.41653 1.51027 1.004 1.2 -1.799
Mo 0.0507116 7.48597 2.80482 -0.434 -1.702 -0.469
S 1.39973 6.52113 1.06787 0.097 -0.77 -0.115
Mo -1.5343 10.0292 3.4796 -0.267 -0.476 0.195
S 0.333694 9.04551 4.60697 0.327 0.58 0.644
S -0.342075 9.40935 1.40892 1.675 -1.653 -0.307
Mo -3.08454 12.9532 4.00252 -2.557 -0.278 0.324
S -1.31938 11.7489 5.1741 -1.45 0.157 0.87
S -1.60235 12.0695 2.16068 -0.002 1.0 0.554
S 1.89793 0.759491 2.28564 -0.242 -0.511 1.176
Mo 6.37956 1.96744 3.62598 0.384 -0.93 0.647
S 8.17551 1.23227 4.99446 -0.424 1.479 -0.037
S 7.78911 1.2299 1.94934 1.086 -0.144 -0.229
Mo 4.84598 4.5665 2.89314 1.016 0.055 -0.557
S 6.41375 4.08503 4.68867 0.222 0.202 -0.853
S 6.47475 3.22473 1.55174 -0.445 -0.294 1.69
Mo 3.25743 7.41628 2.66683 -1.076 1.922 -0.577
S 4.79013 6.20996 0.97538 -0.377 1.598 0.744
Mo 1.63303 10.1095 2.72578 0.498 -0.866 -0.389
H 1.79991 8.38097 3.66457 0.448 1.884 0.7
Mo -1.44628 4.67868 3.09722 -1.521 -2.026 0.252
S 3.25635 9.30045 0.955754 -0.95 1.992 -0.219
Mo 0.158014 12.9673 3.50064 -0.923 0.592 -0.635
S 1.8927 11.6603 4.55395 -1.42 0.016 0.489
S 1.48859 12.2805 1.55048 -0.692 -1.37 -1.102
Mo 9.51478 2.00835 3.23234 2.083 -1.365 -1.398
S 11.1457 0.870753 4.49263 -0.57 -1.156 -2.442
S 10.7874 1.08565 1.52905 -0.902 1.45 0.221
Mo 7.93034 4.57442 2.87558 -0.212 0.025 0.768
S 9.4665 3.84754 4.5162 -1.816 -1.081 -0.733
S 9.68638 3.64607 1.52865 -0.915 0.584 0.667
S 0.339157 3.95036 4.57042 0.562 -1.55 -0.512
Mo 6.14913 7.22082 2.78539 -0.696 -0.732 -2.582
S 7.76599 6.33151 4.43312 0.391 0.102 -0.535
S 8.19807 6.49652 1.54402 1.066 -0.945 0.869
Mo 4.78907 10.058 2.8415 -0.96 -0.76 -0.601
S 5.77559 8.91403 4.66026 1.221 0.8 -0.268
S 6.75513 9.32626 1.51626 0.64 -0.915 -0.507
Mo 3.29509 12.8293 2.91729 -2.227 0.356 0.889
S 4.49837 11.6899 4.71216 -0.594 0.382 0.009
S 5.1181 12.1324 1.50725 -0.534 -1.135 0.649
Mo 12.6091 1.81794 2.87559 -0.205 0.032 0.491
S -0.233502 3.4206 1.57582 -0.692 -0.661 -0.073
S 14.0373 1.16103 4.7576 0.145 1.006 -0.776
S 14.494 0.840568 1.80707 -1.371 1.089 0.804
Mo 11.2085 4.47776 3.03136 1.025 1.825 0.123
S 12.8312 3.55499 4.51132 0.925 0.136 0.644
S 12.8407 3.72788 1.40206 -1.376 0.295 0.499
Mo 9.50413 7.31851 3.15804 -0.067 -0.516 0.341
S 10.8486 6.23766 4.63125 -0.272 -0.948 -0.129
S 11.2007 6.51339 1.81074 -0.445 0.548 0.15
Mo 7.72344 9.87761 3.56981 -0.829 -0.509 -0.848
S 9.37548 8.82663 5.0075 -0.593 2.262 -0.522
Mo -3.04329 7.19913 3.54796 -0.48 0.899 0.668
S 9.62068 9.33235 2.0879 -1.24 0.932 -0.323
Mo 6.36836 12.7948 3.51535 0.774 -1.795 0.071
S 7.81763 11.6677 5.23209 1.392 1.153 1.657
S 8.22314 11.9387 2.27445 2.185 -1.092 0.691
S -1.08192 6.44816 4.7042 -0.086 -0.517 -0.631
S -1.85555 6.55302 1.59703 1.197 -0.625 -0.141
73
energy=-8069.9042 Lattice="15.927209 0.000000 0.000000 -7.963416 13.793478 0.000000 0.000000 0.000000 13.223810" Properties=species:S:1:pos:R:3:forces:R:3 pbc="T T T"
Mo 0.120159 1.88304 3.49223 -0.186 -1.199 -1.755
Mo -4.6778 9.92781 4.01885 -0.879 -1.988 -0.638
S -2.88276 8.79318 5.20691 -0.503 -1.114 -0.819
S -3.35471 9.08692 2.12515 -1.278 -0.876 0.769
Mo -6.18735 12.7398 4.09398 0.118 -0.284 -1.056
S -4.58812 11.7683 5.55211 2.055 1.255 0.576
S -4.66516 11.7684 2.44898 1.554 1.118 1.609
Mo 3.31165 2.14848 3.702 -0.881 1.487 -0.651
S 4.84162 1.35527 5.31045 0.149 -0.134 -1.055
S 4.75749 0.952027 2.17766 -1.783 1.656 0.123
Mo 1.84519 4.58155 2.59939 -0.341 -0.689 -0.236
S 1.75781 1.06734 5.20435 -0.434 0.378 -0.0
S 3.13793 4.36402 4.69005 0.231 1.057 -1.924
S 3.11894 3.30248 1.49951 1.368 -0.816 -0.261
Mo -0.00407216 7.48199 2.86056 -1.329 -0.591 -0.948
S 1.38183 6.45802 1.09198 -1.409 -1.304 -0.759
Mo -1.55646 10.0564 3.4557 0.27 -0.689 0.135
S 0.44968 9.09396 4.58691 0.177 0.752 0.427
S -0.33302 9.37988 1.42338 0.157 0.017 1.497
Mo -3.10878 12.9338 3.93902 0.516 -0.343 0.485
S -1.27872 11.789 5.08603 -0.186 -0.964 -0.115
S -1.66975 12.1249 2.16698 0.602 -0.31 0.949
S 1.73109 0.785718 2.32125 -1.843 0.564 -0.025
Mo 6.37134 1.96397 3.58908 -0.556 -2.372 -1.347
S 8.08962 1.18759 5.02332 1.28 -0.547 -0.616
S 7.74264 1.18689 1.93883 -0.261 0.399 0.571
Mo 4.83703 4.55686 2.87328 -0.045 -0.493 0.471
S 6.40284 4.08044 4.66006 -1.713 -1.983 1.665
S 6.46559 3.28854 1.58508 -3.524 0.813 0.4
Mo 3.27962 7.37967 2.61773 -0.173 0.279 1.819
S 4.82779 6.15109 0.964235 -1.253 0.33 0.341
Mo 1.66162 10.0934 2.73158 -1.024 -1.073 -0.051
H 1.89475 7.71805 3.67439 0.16 -0.109 0.498
Mo -1.45443 4.69118 3.1629 -0.641 0.199 -1.384
S 3.28462 9.43568 0.976546 0.338 -0.484 -1.157
Mo 0.198746 12.987 3.50343 -0.056 0.577 -1.799
S 1.87458 11.669 4.60688 1.396 -1.33 1.582
S 1.48314 12.1997 1.51387 0.052 -0.405 1.924
Mo 9.47954 2.01351 3.25606 -2.171 -1.509 -0.634
S 11.1038 0.95781 4.5034 0.404 -0.707 0.392